# vtk DataFile Version 3.0
CHILD
ASCII
DATASET UNSTRUCTURED_GRID
POINTS      27649 float
   464898.49485  3810020.09062     2214.28100
   463552.18750  3810177.25000     2221.42600
   467913.49485  3810103.09062     2288.69200
   467129.49485  3810154.09062     1985.94800
   467120.49485  3810184.09062     1966.11500
   463240.49485  3808133.09062     2210.70000
   463206.49485  3808247.09062     2221.46400
   467226.49485  3809663.09062     2088.09500
   463913.49485  3809037.09062     2058.97200
   466871.49485  3809254.09062     2174.26800
   466867.49485  3809259.09062     2165.39900
   466422.49485  3810046.09062     1997.15600
   464589.49485  3810050.09062     2216.56700
   464577.49485  3810084.09062     2202.65500
   465312.49485  3807863.09062     1755.27600
   463353.49485  3808529.09062     2084.58900
   463732.00000  3810369.50000     2225.87900
   464261.49485  3809225.09062     2166.45400
   465860.49485  3810540.09062     2144.02100
   465860.49485  3810549.09062     2152.57100
   467057.49485  3809908.09062     2111.42600
   466473.49485  3810699.09062     2138.57400
   464014.49485  3806629.09062     2007.09400
   464024.49485  3806702.09062     1981.80900
   463981.49485  3807651.09062     1865.42000
   465453.00000  3807084.50000     1757.58700
   467460.49485  3810958.09062     2227.52100
   467418.49485  3810968.09062     2241.31600
   465479.49485  3807842.09062     1716.96100
   462550.49485  3807554.09062     2199.62400
   465851.49485  3810559.09062     2142.02000
   465841.49485  3810571.09062     2162.63100
   463468.49485  3808980.09062     2025.01700
   463560.49485  3808303.09062     2040.95100
   464589.49485  3808205.09062     1779.30100
   467034.49485  3809964.09062     2034.02700
   467056.49485  3809976.09062     2046.67400
   465999.49485  3810643.09062     2072.43100
   466886.49485  3810468.09062     2136.27400
   466319.49485  3810211.09062     2140.82400
   466336.49485  3810266.09062     2169.99300
   466400.49485  3810198.09062     2083.30700
   466794.49485  3810600.09062     2230.98600
   465677.49485  3811755.09062     2337.35900
   465655.49485  3811945.09062     2357.81800
   466194.49485  3810497.09062     1984.14100
   466184.49485  3810520.09062     2015.10600
   466790.49485  3809391.09062     2070.56500
   466829.49485  3809377.09062     2099.39300
   466943.49485  3810400.09062     2108.15100
   466967.49485  3810345.09062     2075.71600
   466462.49485  3810160.09062     2065.64200
   466460.49485  3810179.09062     2085.03800
   466475.49485  3810173.09062     2080.83400
   464127.49485  3808957.09062     1999.59200
   465370.49485  3809998.09062     2070.78400
   464914.49485  3808226.09062     1794.11100
   463303.49485  3807779.09062     2079.76000
   466258.49485  3810934.09062     2202.66700
   468555.00000  3810841.50000     2280.79400
   468557.34375  3810828.50000     2281.45100
   468513.00000  3811198.50000     2281.02400
   468494.75000  3811200.25000     2281.29800
   467892.49485  3810251.09062     2282.95300
   465797.49485  3807785.09062     1718.90600
   462475.49485  3807102.09062     2198.63900
   463239.49485  3809264.09062     2181.24100
   463235.49485  3809247.09062     2200.90800
   463737.49485  3809047.09062     2031.11300
   463771.49485  3809080.09062     2062.44400
   463664.49485  3808396.09062     1975.61300
   464447.49485  3808372.09062     1844.18200
   464414.49485  3808476.09062     1863.52800
   464557.49485  3809525.09062     2104.86100
   464482.49485  3809524.09062     2167.25800
   462708.00000  3805969.50000     2231.50700
   466442.49485  3810269.09062     2140.12100
   466472.49485  3810300.09062     2145.35900
   466007.49485  3810723.09062     2059.75800
   466276.49485  3810856.09062     2195.52800
   466453.49485  3810605.09062     2093.58100
   466446.49485  3810597.09062     2102.63700
   467242.49485  3810865.09062     2146.42400
   467249.49485  3810863.09062     2147.28300
   467137.49485  3810937.09062     2233.46600
   467145.49485  3810932.09062     2230.11100
   466637.62500  3811896.75000     2317.61800
   467120.49485  3809951.09062     2099.52100
   467304.49485  3809385.09062     2231.98300
   466270.49485  3810952.09062     2231.28900
   466268.49485  3810950.09062     2225.57500
   466274.49485  3810946.09062     2229.98200
   467011.34375  3811652.50000     2306.03700
   466128.49485  3810912.09062     2209.22000
   466132.49485  3810921.09062     2232.60800
   466132.49485  3810915.09062     2216.48200
   466039.49485  3810852.09062     2220.05200
   463268.49485  3807720.09062     2097.23800
   465909.49485  3810577.09062     2080.86100
   465638.49485  3810014.09062     2005.47800
   465074.49485  3811464.09062     2309.27900
   466007.49485  3811597.09062     2310.73700
   466090.49485  3811741.09062     2294.09400
   466101.49485  3811688.09062     2303.99400
   465236.49485  3810510.09062     2257.97300
   465720.49485  3810655.09062     2260.67300
   465739.49485  3810702.09062     2261.84600
   465792.49485  3810652.09062     2227.86200
   466058.49485  3810481.09062     1983.77800
   464414.49485  3809089.09062     2093.59100
   467495.49485  3810391.09062     2254.32300
   467475.49485  3810435.09062     2245.61200
   467055.49485  3810642.09062     2147.69900
   467022.49485  3810643.09062     2142.75600
   467033.49485  3810669.09062     2167.63300
   463752.49485  3809315.09062     2161.98100
   463836.49485  3809301.09062     2186.27400
   463833.49485  3809303.09062     2178.04500
   463840.49485  3809315.09062     2191.34900
   463326.49485  3809219.09062     2114.08500
   463361.49485  3809202.09062     2085.45300
   463629.49485  3809469.09062     2203.84200
   463529.49485  3809528.09062     2197.86200
   464706.49485  3809057.09062     1917.85400
   464668.49485  3807797.09062     1763.72000
   464462.49485  3807675.09062     1779.50000
   464395.49485  3807385.09062     1786.24400
   465618.46875  3807343.00000     1687.90600
   465625.03125  3807355.50000     1686.61400
   463714.49485  3807969.09062     1959.94300
   463796.49485  3807981.09062     1932.30400
   464271.49485  3806832.09062     1903.17900
   464247.49485  3806734.09062     1931.80500
   468202.00000  3811631.50000     2272.39500
   468364.00000  3809539.50000     2304.57300
   468974.15625  3809436.75000     2306.23100
   465928.49485  3807842.09062     1784.47100
   464022.49485  3806748.09062     1964.77900
   462879.49485  3806501.09062     2158.74100
   462663.53125  3806224.75000     2220.64900
   462073.25000  3808093.75000     2219.71400
   463271.25000  3809559.25000     2203.84200
   463095.53125  3808408.25000     2217.30700
   463208.49485  3809280.09062     2195.03800
   463519.18750  3809931.25000     2212.74400
   463515.18750  3809921.25000     2212.54400
   463860.49485  3809271.09062     2194.76100
   464201.49485  3807536.09062     1815.57600
   465485.49485  3810179.09062     2107.80000
   465489.49485  3810170.09062     2103.21800
   465450.49485  3810157.09062     2141.82400
   463153.00000  3809305.25000     2203.51400
   463342.49485  3809105.09062     2156.62600
   463358.49485  3809114.09062     2138.61000
   463358.49485  3809111.09062     2140.34200
   466467.49485  3810561.09062     2154.69200
   463282.49485  3809403.09062     2126.58300
   465165.49485  3809999.09062     2217.97900
   465183.49485  3810000.09062     2205.43200
   465635.49485  3810007.09062     2007.16200
   465627.49485  3810002.09062     2013.10700
   465619.49485  3810025.09062     2022.80000
   463868.49485  3807785.09062     1879.13600
   463881.49485  3807773.09062     1878.12100
   464094.49485  3808211.09062     1852.55900
   464099.49485  3808134.09062     1873.59100
   464038.49485  3808174.09062     1885.04200
   464851.49485  3808437.09062     1822.63700
   463953.49485  3807846.09062     1856.82000
   463920.49485  3807864.09062     1869.40800
   464516.49485  3807938.09062     1781.32100
   467495.49485  3810576.09062     2250.88500
   467486.49485  3810584.09062     2248.41800
   467491.49485  3810584.09062     2248.92400
   466540.49485  3810612.09062     2176.01000
   467714.49485  3811235.09062     2262.14900
   467447.49485  3810653.09062     2148.82500
   464119.49485  3809210.09062     2172.57800
   464829.49485  3810174.09062     2206.39400
   464834.49485  3810167.09062     2197.85000
   463037.00000  3806164.50000     2209.85100
   463234.49485  3806936.09062     1947.70100
   463832.49485  3806857.09062     1943.33400
   463730.49485  3806717.09062     1988.11000
   463759.49485  3806905.09062     1942.74700
   463584.49485  3806454.09062     2122.50900
   467176.49485  3810781.09062     2135.27000
   467192.49485  3810758.09062     2112.07900
   467114.49485  3809902.09062     2178.49300
   467120.49485  3809901.09062     2165.08400
   465491.49485  3810073.09062     2083.93600
   466998.49485  3809472.09062     2041.77200
   467000.49485  3809474.09062     2042.51200
   467224.49485  3809689.09062     2102.44600
   466432.49485  3810480.09062     2152.92500
   466433.49485  3810474.09062     2150.54400
   464722.49485  3810026.09062     2127.03400
   467334.49485  3809624.09062     2123.46000
   467401.49485  3809674.09062     2202.83300
   464432.49485  3809428.09062     2188.76700
   464437.49485  3809417.09062     2183.31500
   464127.49485  3809238.09062     2194.57400
   464115.49485  3809247.09062     2210.28700
   464132.49485  3809266.09062     2198.30700
   464999.49485  3809876.09062     2148.91800
   465641.49485  3809176.09062     1829.27200
   465582.49485  3808403.09062     1759.10900
   466080.46875  3808172.25000     1835.82000
   466080.00000  3808207.50000     1823.02400
   467175.49485  3809851.09062     2192.14600
   467199.49485  3809790.09062     2149.72800
   466775.49485  3809268.09062     2084.42600
   467645.49485  3809779.09062     2273.59000
   467478.49485  3809741.09062     2266.26200
   467478.49485  3809861.09062     2266.65100
[...]
POINT_DATA     27649
SCALARS Altitude float 1
LOOKUP_TABLE default
2214.281
2221.426
2288.692
1985.948
1966.115
2210.7
2221.464
2088.095
2058.972
2174.268
2165.399
1997.156
2216.567
2202.655
1755.276
2084.589
2225.879
2166.454
2144.021
2152.571
2111.426
2138.574
2007.094
1981.809
1865.42
1757.587
2227.521
2241.316
1716.961
2199.624
2142.02
2162.631
2025.017
2040.951
1779.301
2034.027
2046.674
2072.431
2136.274
2140.824
2169.993
2083.307
2230.986
2337.359
2357.818
1984.141
2015.106
2070.565
2099.393
2108.151
2075.716
2065.642
2085.038
2080.834
1999.592
2070.784
1794.111
2079.76
2202.667
2280.794
2281.451
2281.024
2281.298
2282.953
1718.906
2198.639
2181.241
2200.908
2031.113
2062.444
1975.613
1844.182
1863.528
2104.861
2167.258
2231.507
2140.121
2145.359
2059.758
2195.528
2093.581
2102.637
2146.424
2147.283
2233.466
2230.111
2317.618
2099.521
2231.983
2231.289
2225.575
2229.982
2306.037
2209.22
2232.608
2216.482
2220.052
2097.238
2080.861
2005.478
2309.279
2310.737
2294.094
2303.994
2257.973
2260.673
2261.846
2227.862
1983.778
2093.591
2254.323
2245.612
2147.699
2142.756
2167.633
2161.981
2186.274
2178.045
2191.349
2114.085
2085.453
2203.842
2197.862
1917.854
1763.72
1779.5
1786.244
1687.906
1686.614
1959.943
1932.304
1903.179
1931.805
2272.395
2304.573
2306.231
1784.471
1964.779
2158.741
2220.649
2219.714
2203.842
2217.307
2195.038
2212.744
2212.544
2194.761
1815.576
2107.8
2103.218
2141.824
2203.514
2156.626
2138.61
2140.342
2154.692
2126.583
2217.979
2205.432
2007.162
2013.107
2022.8
1879.136
1878.121
1852.559
1873.591
1885.042
1822.637
1856.82
1869.408
1781.321
2250.885
2248.418
2248.924
2176.01
2262.149
2148.825
2172.578
2206.394
2197.85
2209.851
1947.701
1943.334
1988.11
1942.747
2122.509
2135.27
2112.079
2178.493
2165.084
2083.936
2041.772
2042.512
2102.446
2152.925
2150.544
2127.034
2123.46
2202.833
2188.767
2183.315
2194.574
2210.287
2198.307
2148.918
1829.272
1759.109
1835.82
1823.024
2192.146
2149.728
2084.426
2273.59
2266.262
2266.651
2192.376
2174.965
2235.592
2100.099
2252.109
2190.411
2211.911
2197.43
2263.043
2263.921
2224.458
2135.999
2116.187
2111.859
2255.244
2219.488
2217.649
2237.82
2226.09
2222.187
2217.992
1901.548
1883.421
1824.874
2072.182
1826.267
1750.789
1809.885
1712.823
1825.837
1838.597
2207.011
1993.889
2327.219
2326.867
2281.707
2299.89
2300.211
1735.996
2209.502
2232.795
2225.133
2224.765
2340.244
2327.943
2280.52
2297.955
2286.066
2293.836
2294.39
2315.636
2298.099
2298.082
2291.993
2299.992
2128.467
2308.04
1714.26
1834.549
2140.585
2115.882
2178.528
2197.945
2103.287
2074.042
2279.488
1872.469
2023.757
2245.493
2245.321
2268.738
2424.948
2209.054
2209.919
2208.898
1909.096
1901.026
2111.04
2200.521
2195.759
2190.669
2194.685
2202.848
2193.001
2202.519
1859.039
1790.417
1787.12
2309.283
2302.032
2203.581
2199.085
1871.786
2092.274
2089.572
1964.547
2153.435
2120.976
2132.073
1991.443
2130.482
2163.132
2085.833
2102.423
2174.133
2229.854
2233.783
2237.041
2240.727
2222.038
2210.02
2010.832
1905.918
2190.219
2163.243
2181.909
2214.237
2228.733
2225.961
2236.084
2226.058
2194.769
2174.468
2141.563
2223.143
1891.896
1865.581
2065.889
2059.21
2054.256
2181.583
2185.445
2212.775
2156.981
2182.812
2189.572
2183.458
2204.227
2161.375
2171.065
2186.499
2212.038
2210.807
2215.91
2001.767
2029.352
1927.383
2155.41
2229.977
2121.582
2125.424
2025.406
2238.762
2223.14
2250.713
1856.957
1894.746
2212.402
2010.6
2060.182
2031.704
2027.0
2139.461
2120.035
1824.137
1801.508
1838.832
1812.867
1958.471
1970.487
2224.721
2212.87
2234.484
2106.642
2019.233
2029.323
2224.653
2220.498
2139.363
2135.459
2201.71
2130.775
2114.074
2078.787
2096.588
2195.947
2112.662
2076.368
2147.038
2137.311
2240.031
2239.34
2176.998
2197.659
2192.699
2223.447
2146.641
2138.521
2174.17
2126.082
2114.294
2161.297
2159.154
2121.496
2118.431
2121.977
2167.194
2143.349
2133.842
2109.384
2126.864
2032.608
2142.752
2012.793
2124.567
2059.708
2068.806
2172.193
2170.972
2170.817
2164.97
2215.976
2170.421
2162.958
2135.623
2148.035
2144.799
2153.135
2146.537
2143.469
2196.003
2187.443
2159.935
2213.948
2201.849
2261.076
2327.718
2326.666
2322.238
2264.304
2183.249
2206.792
2211.489
2247.479
2241.39
2246.199
2203.396
2197.43
2153.519
2146.275
2177.449
2191.58
2225.58
2220.539
2231.395
2071.063
2074.807
2061.815
2130.181
2149.783
2235.55
2266.073
2088.796
2115.069
2087.54
2021.855
2086.754
1992.049
2077.227
2087.083
1959.669
2096.896
2079.769
2299.923
2079.4
1886.677
2181.172
2171.284
2147.478
1851.043
1867.33
1777.306
1767.26
2074.907
2055.782
1907.837
1828.256
1776.759
1755.798
1790.715
1817.61
2202.451
2193.624
2168.415
2130.326
1830.629
1766.558
1737.227
1698.162
1949.851
1839.589
1839.504
1849.367
2125.841
1883.615
2159.525
1977.448
2315.881
2295.979
2181.102
2141.412
2161.635
1946.279
2092.19
2075.329
2187.969
2356.193
2386.461
2312.014
2320.527
2317.781
2317.881
2278.189
2318.024
2291.568
2291.687
2300.214
2300.392
2307.186
2290.313
1882.0
1768.729
1987.266
2160.77
2163.21
2201.244
2220.582
2219.51
2203.984
2204.13
2198.556
2198.321
2148.865
2190.564
2201.275
2239.101
2239.372
2253.082
2232.527
2215.092
2219.628
2219.254
2208.915
2209.023
2206.191
2206.216
2206.684
2204.341
2203.606
2207.281
2211.972
2216.838
2343.121
2356.411
2358.965
2267.436
1940.542
1928.16
1915.766
2202.458
2261.636
2235.966
2212.563
2204.102
2205.102
2016.251
2176.304
2074.807
2042.088
2068.641
2133.497
2234.888
2104.608
2190.412
2189.108
2186.485
2057.178
2081.844
2198.524
2149.412
2131.802
2120.023
2075.454
2226.946
2226.855
2200.323
2169.288
2174.313
2195.572
2113.586
2165.938
1866.817
1987.052
2073.3
2116.653
2071.738
2153.124
2146.147
2154.807
2185.823
2202.649
2131.894
2140.418
2122.571
2125.653
2269.289
2123.602
1889.4
2183.083
2197.766
2146.5
2168.494
2150.582
2217.204
2214.146
1739.867
1846.849
2177.872
2171.775
2080.149
2058.972
2118.071
2200.044
2078.754
2143.353
2088.377
2074.282
2071.281
2038.205
2176.882
2182.84
2097.824
2094.009
1844.645
2217.482
2218.889
2219.697
2210.458
2233.76
2202.942
2210.168
2176.797
2188.088
2140.677
2142.492
2126.194
2234.524
2215.519
2203.728
1833.447
1860.697
2220.781
2221.386
2067.117
2040.162
2068.972
2112.818
2176.933
2180.311
1971.111
1967.737
2238.279
2236.7
2174.556
2200.181
2125.307
2012.844
2006.567
2197.796
2189.413
2219.121
2208.664
2170.35
2024.601
2042.907
2251.414
2250.93
2265.552
2171.321
2157.361
2017.052
1925.15
1945.36
1942.733
2219.454
2228.8
2228.324
1883.176
1870.632
2029.447
2051.492
2213.255
2209.837
2187.802
2203.95
2085.603
2119.901
2120.786
2141.996
2148.641
2139.474
2133.724
2120.731
2035.713
2232.831
2146.693
2121.479
2193.993
2166.557
2218.091
2221.912
2131.66
2215.832
2217.049
2212.642
2214.291
2103.018
2256.281
2263.01
2205.663
2298.156
2297.33
2297.19
2230.004
2300.798
2184.398
2080.845
2082.929
2129.5
2133.693
2103.985
2171.787
2222.491
2133.202
2217.685
2199.594
2172.924
2215.462
2080.131
2148.078
2207.386
2199.6
1910.134
2036.118
2092.958
2178.774
2109.517
2105.759
2126.652
2125.818
2262.835
2256.049
1945.683
2011.266
1893.662
1890.086
2146.134
2137.509
2169.82
2165.844
2263.061
2247.586
2264.344
2192.775
2181.009
2180.526
2182.133
2038.341
2074.405
2048.212
2223.608
2212.378
2200.143
2202.686
2243.008
2168.991
2140.968
2197.368
2145.846
2149.414
2204.796
2189.085
2187.802
2218.553
2223.324
2218.029
2178.093
2171.719
2180.725
2145.454
2169.916
2056.606
2075.875
2063.37
2103.593
2192.115
2177.73
2160.792
2155.956
2130.051
2139.127
2163.271
2220.576
2218.756
2094.05
2104.513
2183.021
2209.726
2234.538
2233.675
2246.447
2094.51
2166.687
2132.93
2041.325
2070.561
2164.053
2185.982
2099.822
2239.358
2219.711
2137.204
2149.939
2125.744
2183.676
2096.556
2092.13
2173.133
2180.936
2131.233
2168.487
2162.773
2063.785
2240.884
2255.158
2111.729
2117.613
2126.829
2124.308
2008.583
2014.901
2090.798
2094.242
2155.338
2067.18
2135.518
2147.031
2233.334
2201.753
2195.615
2185.68
2158.677
2102.818
2113.618
2109.559
2175.77
2193.111
2013.356
2241.005
2226.375
2214.013
2174.687
2163.912
2191.312
2227.156
2224.288
2237.155
2141.661
2096.418
2115.736
1978.813
2013.205
2184.794
2297.116
2297.26
2145.19
2165.238
1993.487
2303.802
2290.755
2322.18
2276.065
2291.499
2235.174
2226.116
2273.723
2234.621
2233.822
2212.84
2198.724
2252.301
2250.168
2249.42
2255.146
2265.217
2246.333
2246.171
2250.378
2242.343
2141.25
2140.791
2152.921
2194.835
2189.098
2210.242
2179.882
2168.846
2179.323
2176.127
2177.041
2053.946
2067.493
1978.908
2179.41
1921.797
2239.214
2097.835
2136.568
2110.402
2279.882
2277.552
2147.014
2020.936
2099.694
2012.322
2015.718
1872.589
2294.46
2124.222
2120.795
2212.124
1928.878
1937.167
2100.738
2169.865
2127.992
2099.596
2074.552
2025.588
1855.328
1839.398
1772.463
1763.261
1767.68
1848.215
1768.907
1808.528
1758.568
1745.189
1758.718
1754.047
1727.354
1727.836
1775.015
1935.818
1899.062
1814.423
1771.534
1758.731
1946.582
2267.413
2308.381
2299.682
2192.34
2222.93
1764.582
1692.785
1698.684
1853.541
2158.126
2196.852
2223.586
2223.448
2254.487
2254.604
2198.169
2157.345
2184.423
2242.302
2285.012
2323.186
2322.28
2304.475
2305.617
2289.404
2271.979
2271.908
2281.108
2280.859
2277.107
2280.625
2284.98
2293.813
2296.984
2300.369
2303.682
2303.164
2309.005
2309.125
2304.087
2306.776
2303.522
2264.344
2301.915
2253.186
2244.408
2205.926
2196.419
2237.326
2176.85
1835.457
1830.971
1805.106
1808.011
1771.995
1683.55
1766.31
1795.997
1969.014
1970.45
2136.96
2152.431
2124.609
2169.604
2204.475
2204.62
2205.276
2211.79
2220.109
2228.292
2203.444
2226.223
2226.91
2224.934
2245.498
2258.31
2252.944
2265.124
2237.997
2250.53
2220.943
2213.581
2232.552
2234.686
2240.958
2207.546
2207.849
2209.17
2205.337
2204.593
2211.357
2208.898
2212.125
2226.479
2240.287
2240.29
2237.938
2237.501
2241.618
2249.775
2250.316
2298.78
2282.951
2143.097
2140.014
2201.347
2202.285
2191.148
2180.67
2243.751
2223.844
2027.613
2334.78
2337.098
2243.449
2242.881
1909.4
2187.357
2189.702
2147.675
2160.168
2141.273
2136.779
2135.91
2171.738
2163.855
1851.949
1856.819
1779.973
1770.321
2238.283
2234.085
2248.863
2169.366
2209.455
2046.78
2106.448
2128.081
2041.113
2010.302
2192.8
2193.681
2191.288
2201.43
1905.935
2376.555
2204.223
2177.674
2164.162
2239.416
2011.837
1975.808
1983.707
1986.705
2121.808
2137.669
2146.767
1936.52
1945.291
1899.964
2194.502
2161.923
2179.197
2295.359
2138.916
2114.406
2129.923
2131.324
2129.781
2206.708
2089.432
1865.891
2219.482
2088.568
2206.625
2125.969
2149.927
2005.217
1839.583
1857.722
1865.355
1877.181
1823.672
2181.654
2152.159
2218.795
2197.832
2207.627
2250.549
2243.111
2157.457
1924.358
1874.321
2125.799
2117.415
2123.352
2039.769
2045.694
2169.939
2121.782
2127.402
2185.102
2176.389
2146.99
1898.652
2170.016
2177.755
2172.496
2144.087
2088.698
2170.085
2167.635
2144.418
2056.058
2234.517
2099.393
2088.886
2084.306
2072.154
1940.385
1964.63
1970.695
1894.197
1923.67
2140.551
1824.026
2066.144
2036.896
2134.255
2102.764
2202.815
2140.213
2140.008
2216.924
2208.438
2068.361
2069.526
2130.734
2102.399
2181.497
2186.026
2104.324
2121.419
2083.095
2208.626
2183.927
2155.805
1843.873
2111.216
2091.79
2163.667
2138.972
2187.198
2199.602
2190.268
2098.015
2134.175
2170.761
2135.247
2233.188
2162.417
2180.856
2159.216
2172.835
1944.787
1987.014
1938.112
1943.885
1921.944
2214.226
2209.298
2184.552
1979.454
2220.31
2219.187
2198.565
2158.997
2192.25
2101.01
2100.82
2102.006
2165.84
2167.914
2215.939
1816.96
1835.059
1858.634
2023.217
2062.442
2058.041
2064.895
2179.159
2123.938
2210.552
2213.29
2103.643
2181.451
2174.273
2185.791
2159.531
2165.399
2159.171
2218.853
2100.341
2104.75
2104.704
2160.715
2264.134
2231.514
2228.389
2217.726
2215.349
2230.62
2254.26
2176.676
2155.711
2106.626
2042.676
2194.899
1783.107
2143.136
2028.636
2087.929
2216.033
2195.729
2180.154
2193.64
2061.227
2060.087
1846.167
2048.748
2140.136
2193.517
2184.227
2253.487
2255.463
2256.618
2246.298
2272.67
2130.07
2230.249
2232.316
2195.727
2232.444
2067.198
2157.139
2156.601
2198.29
2203.772
2027.123
2136.273
2157.515
2134.818
2196.736
2209.288
2200.929
2172.122
2239.591
2156.114
2203.932
2205.612
2116.652
2207.995
2216.981
2165.346
2168.556
2161.422
1840.925
2038.046
1802.89
1752.587
2115.238
2261.836
2238.306
2186.641
2179.806
1964.086
2054.579
2084.816
2162.385
2188.911
2099.972
2095.383
2127.839
2133.475
2129.073
2067.774
2082.827
2092.61
2053.393
2016.68
2172.736
2152.568
2182.167
2240.332
2197.757
2201.964
2208.132
2216.564
2183.232
2120.989
2137.962
2123.978
2203.74
2121.623
2119.224
2166.479
2146.268
2225.757
2229.533
2194.952
2191.398
2038.265
2046.475
2216.219
2228.239
2229.468
2067.149
2099.014
2080.4
2088.691
2235.753
2245.899
2201.978
2200.021
2132.078
2117.074
2080.499
2115.902
2183.377
2242.768
2238.194
2251.206
2264.264
2263.075
2257.341
2292.912
2278.559
2256.799
2162.19
2226.135
2231.532
2026.508
2162.195
2031.376
2186.188
2186.184
2239.909
2191.702
2213.894
2073.154
2018.499
2171.977
2175.279
1986.792
2100.329
2147.617
2249.732
2090.812
2108.142
2121.563
2211.818
2214.68
2171.604
2206.971
2130.595
2162.261
2182.442
2191.354
2128.059
2220.946
2216.455
2098.25
2163.5
2153.42
2108.382
2113.993
2120.558
2108.043
2159.983
2176.446
2037.336
2165.442
2197.499
2164.713
2158.495
2082.885
2078.433
2071.49
2065.854
2140.974
2134.635
2059.169
2052.435
1705.454
2149.069
2147.794
2113.785
2116.115
2122.864
2078.279
2199.491
2236.164
2098.892
2241.314
2223.726
2209.961
2114.467
2148.068
2142.049
2079.711
2157.537
2170.969
2127.185
2220.688
2122.956
2203.757
2165.924
2231.455
2185.498
2266.217
2160.31
2162.668
2204.973
2201.216
2182.28
2181.466
2236.76
2183.376
2177.603
2062.629
2095.719
2064.255
2167.84
2201.371
2095.211
2044.375
2029.347
2189.261
2190.743
2191.82
2191.121
2158.134
2171.168
2133.432
2175.689
2180.803
2158.308
2124.518
2162.771
2172.782
2146.662
2160.995
2192.023
2235.637
2207.278
2257.013
2172.457
2161.734
2222.116
2231.041
2185.149
2191.581
2197.532
2181.65
2207.504
2144.374
2100.695
2133.594
2183.957
2186.046
2106.012
2183.792
2168.967
2153.267
2142.754
2170.146
2188.376
2204.556
2185.441
2203.62
2077.089
2086.134
2089.695
2072.345
2187.411
2182.089
2139.417
2228.791
2084.927
2075.099
2168.963
2152.59
2002.763
2208.846
2210.671
2141.837
2131.809
2168.255
2163.608
2169.474
2216.892
2160.36
2245.589
2236.495
2109.754
2122.138
2206.662
2189.771
2205.759
2180.66
2176.636
2179.835
2179.0
1779.577
2004.493
2114.315
2100.115
2144.259
2159.412
2096.437
2245.268
2202.666
2177.646
2196.902
2152.944
2156.09
2222.111
2112.65
2152.075
2211.361
2157.417
2189.784
2190.314
2159.821
2153.401
2255.218
2215.973
2222.775
2197.318
2169.135
2072.742
2162.106
2164.714
2191.251
2171.387
2170.343
2129.624
2153.105
2224.206
2111.34
2070.122
2135.868
2209.203
2183.447
2079.743
2082.929
2092.277
2025.219
2220.762
2292.055
2325.045
2302.108
2295.792
2275.556
2281.75
2239.168
2259.618
2224.793
2227.783
2225.907
2361.211
2336.778
2279.194
2211.828
2221.004
2237.986
2260.062
2254.35
2260.163
2228.443
2268.027
2242.602
2239.73
2128.715
2258.321
2209.569
2090.682
2060.024
2015.408
2120.114
2156.861
2049.218
2041.797
2227.133
2226.618
2232.22
2259.508
2258.672
2232.998
2252.229
2141.312
1984.349
1956.473
2245.856
2259.029
2265.498
2227.856
2229.104
2090.304
2057.681
2023.718
2226.449
2208.012
2222.304
2213.815
2207.529
2177.988
2123.101
2011.969
2057.194
2295.138
2293.467
2068.576
1893.564
1914.274
2200.253
2188.923
2149.816
2102.849
2107.766
2189.505
2190.878
2194.925
2201.03
2187.382
2200.557
2047.689
2038.75
2040.348
1935.983
1862.229
1869.21
1826.577
1859.389
1878.036
1778.826
1866.522
1798.758
2099.574
2079.122
1830.805
1813.897
1784.121
1778.72
1877.443
1906.301
1920.077
1950.581
1774.754
1768.453
1760.04
1804.637
1801.483
1741.008
2199.633
2200.021
1736.973
1782.509
1806.353
2158.409
1842.76
2196.773
2185.367
1724.767
1905.215
1935.375
1863.062
1684.204
1813.806
1850.19
2057.474
2068.886
2074.04
2131.595
1851.586
1866.514
1860.971
1889.574
1773.447
1801.224
1935.836
1950.695
1875.819
1904.256
2195.87
2173.004
2165.786
2384.733
2385.249
2333.255
2329.748
2265.629
2266.139
2277.637
2278.176
2284.469
2295.093
2300.672
2302.813
2302.071
2312.421
2300.025
2304.095
2303.549
2298.196
2306.215
2306.578
2300.858
2260.828
2259.46
2233.104
2245.401
2174.633
2105.504
1887.214
1816.908
1837.005
1764.829
1761.969
1891.328
1877.421
1859.349
2175.055
2173.665
2175.55
2196.67
2104.371
2203.842
2221.487
2227.281
2227.108
2232.246
2275.649
2207.445
2207.74
2187.273
2200.843
2208.436
2208.11
2217.822
2239.28
2245.794
2398.706
2376.394
2348.339
2327.579
2327.915
2324.378
2321.843
2317.524
2320.168
2305.003
2298.325
2296.314
2264.897
2266.269
2261.061
2272.045
2275.095
2281.585
2281.001
2279.436
2286.794
2288.832
2291.119
2290.917
2295.626
2295.625
2293.926
2293.829
2301.435
2302.28
2303.417
2309.757
2313.721
2314.012
2313.347
2313.393
2304.505
2303.665
2306.003
2296.772
2298.613
2242.882
2189.851
2202.73
2194.259
2203.519
2204.181
2081.764
2095.186
2093.868
2017.726
2045.324
1943.556
1864.301
1850.288
1801.916
1775.787
1719.345
1696.057
1748.036
1769.598
1803.945
1791.641
1834.252
2129.757
2157.257
2158.717
2164.182
2166.294
2189.446
2193.722
2196.341
2196.91
2207.113
2226.639
2204.824
2203.147
2197.142
2197.091
2196.371
2214.391
2220.648
2227.098
2224.914
2235.833
2226.277
2252.219
2258.303
2256.223
2253.451
2254.266
2219.181
2209.49
2198.243
2198.536
2200.157
2232.155
2227.981
2238.659
2242.299
2227.114
2225.905
2215.17
2210.816
2206.88
2207.16
2209.133
2210.611
2184.715
2188.612
2199.768
2200.045
2203.558
2219.46
2222.308
2225.199
2225.54
2225.988
2240.33
2238.09
2249.007
2248.485
2296.439
2356.107
2386.431
2391.101
2404.537
2372.998
2456.201
2456.11
2449.294
2420.12
2379.557
2166.066
2071.255
2070.596
2121.85
2224.207
2236.666
2185.531
2085.451
2163.229
2281.027
2274.759
2197.695
1951.629
1941.441
2202.467
2215.459
2241.484
2077.975
2194.494
2130.972
2081.913
2058.481
2161.779
1918.958
1970.075
1715.292
2149.916
2179.308
2194.324
2186.474
2137.767
2147.738
2191.206
1747.826
1747.233
2210.26
2205.398
2236.28
1759.009
2069.735
2038.248
2008.694
2021.624
2142.147
2141.936
2093.803
2091.933
2208.819
2207.225
2087.477
2004.226
2195.206
2194.936
2208.187
2181.894
2110.58
2128.393
2164.561
2203.172
2194.739
2178.854
2171.118
2179.385
2218.791
2229.68
2219.002
1839.725
2208.069
2242.404
2243.612
2149.461
2123.19
2123.674
2224.306
1843.523
1877.658
2077.93
2143.769
2205.988
2037.262
2227.07
2107.676
2001.572
2006.494
2007.377
2043.436
2038.356
2032.853
2204.224
2192.231
2180.998
2178.344
2200.092
1960.258
2171.778
2163.255
2208.029
2208.424
2114.745
2218.534
2218.069
2113.835
2082.369
1757.951
1770.089
1792.647
1884.497
1916.877
1955.267
2139.722
2127.64
2101.188
2118.574
2115.714
1925.552
1999.405
2183.884
2078.661
2061.675
1987.734
2070.707
2187.185
2170.089
2168.08
2220.019
2217.177
2176.359
2141.441
2171.189
1950.368
1926.082
1929.984
1930.833
1851.775
2111.501
2066.39
1935.531
1849.353
1801.777
1775.672
1883.531
2241.735
2240.122
2055.13
2070.254
2221.882
2227.067
2216.378
2214.378
2186.041
2027.439
1952.133
2120.343
2249.88
2245.193
2254.482
2185.628
2172.875
2181.526
1900.963
2191.009
2160.573
2218.925
2181.394
2183.809
2158.379
2140.622
2134.744
2228.996
2055.735
1966.994
1863.472
1852.81
1866.461
2144.387
2139.132
2150.463
2152.482
2069.407
2215.079
2178.385
2202.526
2203.136
1915.775
1960.608
2211.023
2216.576
1770.101
1805.363
2188.467
2006.491
2143.404
2182.958
2202.19
2167.744
1866.583
1883.324
2015.339
2233.422
2140.737
2147.249
2159.575
2127.755
1901.302
1887.095
2133.409
2147.072
2209.287
2197.656
2140.6
2163.996
2190.081
2142.008
2130.95
2194.894
2218.666
2083.714
2073.922
2143.161
2203.673
2183.049
2200.337
2175.737
2049.061
2032.006
2070.681
2072.407
1993.878
1889.236
1851.333
2143.844
2056.428
2198.754
2225.211
2176.463
2129.214
2091.383
2114.485
2190.969
2218.915
2211.96
1846.04
2048.189
2018.896
2107.579
2099.535
2142.9
2135.871
2123.448
2125.662
2242.531
2240.336
2230.194
2237.365
2240.058
2144.6
2198.007
2197.016
2117.561
2130.023
2139.759
2241.43
2246.096
2145.549
2147.299
2174.348
2176.588
1882.502
1927.407
1925.854